# vtk DataFile Version 2.0
Pressure Field Data 
ASCII 
DATASET UNSTRUCTURED_GRID 

POINTS 25 float 

    0.0000000000000000E+00     0.0000000000000000E+00     0.0000000000000000E+00 
    1.0000000000000000E+00     0.0000000000000000E+00     0.0000000000000000E+00 
    1.0000000000000000E+00     1.0000000000000000E+00     0.0000000000000000E+00 
    0.0000000000000000E+00     1.0000000000000000E+00     0.0000000000000000E+00 
    2.5000000000000000E-01     0.0000000000000000E+00     0.0000000000000000E+00 
    5.0000000000000000E-01     0.0000000000000000E+00     0.0000000000000000E+00 
    7.5000000000000000E-01     0.0000000000000000E+00     0.0000000000000000E+00 
    1.0000000000000000E+00     2.5000000000000000E-01     0.0000000000000000E+00 
    1.0000000000000000E+00     5.0000000000000000E-01     0.0000000000000000E+00 
    1.0000000000000000E+00     7.5000000000000000E-01     0.0000000000000000E+00 
    7.5000000000000000E-01     1.0000000000000000E+00     0.0000000000000000E+00 
    5.0000000000000000E-01     1.0000000000000000E+00     0.0000000000000000E+00 
    2.5000000000000000E-01     1.0000000000000000E+00     0.0000000000000000E+00 
    0.0000000000000000E+00     7.5000000000000000E-01     0.0000000000000000E+00 
    0.0000000000000000E+00     5.0000000000000000E-01     0.0000000000000000E+00 
    0.0000000000000000E+00     2.5000000000000000E-01     0.0000000000000000E+00 
    2.5000000000000000E-01     7.5000000000000000E-01     0.0000000000000000E+00 
    5.0000000000000000E-01     7.5000000000000000E-01     0.0000000000000000E+00 
    7.5000000000000000E-01     7.5000000000000000E-01     0.0000000000000000E+00 
    2.5000000000000000E-01     5.0000000000000000E-01     0.0000000000000000E+00 
    5.0000000000000000E-01     5.0000000000000000E-01     0.0000000000000000E+00 
    7.5000000000000000E-01     5.0000000000000000E-01     0.0000000000000000E+00 
    2.5000000000000000E-01     2.5000000000000000E-01     0.0000000000000000E+00 
    5.0000000000000000E-01     2.5000000000000000E-01     0.0000000000000000E+00 
    7.5000000000000000E-01     2.5000000000000000E-01     0.0000000000000000E+00 

CELLS 16 80 

4 3 13 16 12 
4 12 16 17 11 
4 11 17 18 10 
4 10 18 9 2 
4 13 14 19 16 
4 16 19 20 17 
4 17 20 21 18 
4 18 21 8 9 
4 14 15 22 19 
4 19 22 23 20 
4 20 23 24 21 
4 21 24 7 8 
4 15 0 4 22 
4 22 4 5 23 
4 23 5 6 24 
4 24 6 1 7 

CELL_TYPES 16 

7 
7 
7 
7 
7 
7 
7 
7 
7 
7 
7 
7 
7 
7 
7 
7 

CELL_DATA 16 
SCALARS Pressure float 1 
LOOKUP_TABLE default 

    1.0628024357037802E-03 
    2.5179719882535423E-03 
    5.6523762612226136E-03 
    1.0505926892929951E-02 
    1.7611883495542990E-03 
    4.0702192649317848E-03 
    7.0659203408511839E-03 
    1.0328189771866558E-02 
    2.0242420226772584E-03 
    4.8759759868759467E-03 
    7.8702386094817722E-03 
    1.0944357113700232E-02 
    2.4123332950931609E-03 
    5.3879206671234581E-03 
    8.2350969691094011E-03 
    1.0750248231537585E-02 

