# vtk DataFile Version 2.0
Pressure Field Data 
ASCII 
DATASET UNSTRUCTURED_GRID 

POINTS 25 float 

    0.0000000000000000E+00     0.0000000000000000E+00     0.0000000000000000E+00 
    1.0000000000000000E+00     0.0000000000000000E+00     0.0000000000000000E+00 
    1.0000000000000000E+00     1.0000000000000000E+00     0.0000000000000000E+00 
    0.0000000000000000E+00     1.0000000000000000E+00     0.0000000000000000E+00 
    2.5000000000000000E-01     0.0000000000000000E+00     0.0000000000000000E+00 
    5.0000000000000000E-01     0.0000000000000000E+00     0.0000000000000000E+00 
    7.5000000000000000E-01     0.0000000000000000E+00     0.0000000000000000E+00 
    1.0000000000000000E+00     2.5000000000000000E-01     0.0000000000000000E+00 
    1.0000000000000000E+00     5.0000000000000000E-01     0.0000000000000000E+00 
    1.0000000000000000E+00     7.5000000000000000E-01     0.0000000000000000E+00 
    7.5000000000000000E-01     1.0000000000000000E+00     0.0000000000000000E+00 
    5.0000000000000000E-01     1.0000000000000000E+00     0.0000000000000000E+00 
    2.5000000000000000E-01     1.0000000000000000E+00     0.0000000000000000E+00 
    0.0000000000000000E+00     7.5000000000000000E-01     0.0000000000000000E+00 
    0.0000000000000000E+00     5.0000000000000000E-01     0.0000000000000000E+00 
    0.0000000000000000E+00     2.5000000000000000E-01     0.0000000000000000E+00 
    2.5000000000000000E-01     7.5000000000000000E-01     0.0000000000000000E+00 
    5.0000000000000000E-01     7.5000000000000000E-01     0.0000000000000000E+00 
    7.5000000000000000E-01     7.5000000000000000E-01     0.0000000000000000E+00 
    2.5000000000000000E-01     5.0000000000000000E-01     0.0000000000000000E+00 
    5.0000000000000000E-01     5.0000000000000000E-01     0.0000000000000000E+00 
    7.5000000000000000E-01     5.0000000000000000E-01     0.0000000000000000E+00 
    2.5000000000000000E-01     2.5000000000000000E-01     0.0000000000000000E+00 
    5.0000000000000000E-01     2.5000000000000000E-01     0.0000000000000000E+00 
    7.5000000000000000E-01     2.5000000000000000E-01     0.0000000000000000E+00 

CELLS 16 80 

4 3 13 16 12 
4 12 16 17 11 
4 11 17 18 10 
4 10 18 9 2 
4 13 14 19 16 
4 16 19 20 17 
4 17 20 21 18 
4 18 21 8 9 
4 14 15 22 19 
4 19 22 23 20 
4 20 23 24 21 
4 21 24 7 8 
4 15 0 4 22 
4 22 4 5 23 
4 23 5 6 24 
4 24 6 1 7 

CELL_TYPES 16 

7 
7 
7 
7 
7 
7 
7 
7 
7 
7 
7 
7 
7 
7 
7 
7 

CELL_DATA 16 
SCALARS Pressure float 1 
LOOKUP_TABLE default 

    1.0788533099565774E+00 
    1.2322615683874381E+00 
    1.3693931374135433E+00 
    1.4814870465440386E+00 
    1.0993454223600112E+00 
    1.2929632935117550E+00 
    1.4674263893369419E+00 
    1.6121212831574221E+00 
    1.1139865476521629E+00 
    1.3359434040247913E+00 
    1.5365672334217280E+00 
    1.7032607218661944E+00 
    1.1212896463321682E+00 
    1.3580268282622396E+00 
    1.5722970523446593E+00 
    1.7508046241840778E+00 

